+ 0.5 0 1 cbr 500 ------- 0 0.0 1.0 0 0
- 0.5 0 1 cbr 500 ------- 0 0.0 1.0 0 0
+ 0.502502 0 1 cbr 500 ------- 0 0.0 1.0 1 1
- 0.504 0 1 cbr 500 ------- 0 0.0 1.0 1 1
+ 0.507781 0 1 cbr 500 ------- 0 0.0 1.0 2 2
- 0.508 0 1 cbr 500 ------- 0 0.0 1.0 2 2
+ 0.510352 0 1 cbr 500 ------- 0 0.0 1.0 3 3
- 0.512 0 1 cbr 500 ------- 0 0.0 1.0 3 3
+ 0.513293 0 1 cbr 500 ------- 0 0.0 1.0 4 4
r 0.514 0 1 cbr 500 ------- 0 0.0 1.0 0 0
- 0.516 0 1 cbr 500 ------- 0 0.0 1.0 4 4
+ 0.517999 0 1 cbr 500 ------- 0 0.0 1.0 5 5
r 0.518 0 1 cbr 500 ------- 0 0.0 1.0 1 1
- 0.52 0 1 cbr 500 ------- 0 0.0 1.0 5 5
r 0.522 0 1 cbr 500 ------- 0 0.0 1.0 2 2
+ 0.524494 0 1 cbr 500 ------- 0 0.0 1.0 6 6
- 0.524494 0 1 cbr 500 ------- 0 0.0 1.0 6 6
r 0.526 0 1 cbr 500 ------- 0 0.0 1.0 3 3
+ 0.528559 0 1 cbr 500 ------- 0 0.0 1.0 7 7
- 0.528559 0 1 cbr 500 ------- 0 0.0 1.0 7 7 
r 0.53 0 1 cbr 500 ------- 0 0.0 1.0 4 4
r 0.534 0 1 cbr 500 ------- 0 0.0 1.0 5 5
+ 0.535142 0 1 cbr 500 ------- 0 0.0 1.0 8 8
