+ 0.1 1 2 cbr 1000 ------- 2 1.0 3.1 0 0
- 0.1 1 2 cbr 1000 ------- 2 1.0 3.1 0 0
+ 0.108 1 2 cbr 1000 ------- 2 1.0 3.1 1 1
- 0.108 1 2 cbr 1000 ------- 2 1.0 3.1 1 1
r 0.114 1 2 cbr 1000 ------- 2 1.0 3.1 0 0
+ 0.114 2 3 cbr 1000 ------- 2 1.0 3.1 0 0
- 0.114 2 3 cbr 1000 ------- 2 1.0 3.1 0 0
+ 0.116 1 2 cbr 1000 ------- 2 1.0 3.1 2 2
- 0.116 1 2 cbr 1000 ------- 2 1.0 3.1 2 2
r 0.122 1 2 cbr 1000 ------- 2 1.0 3.1 1 1
+ 0.122 2 3 cbr 1000 ------- 2 1.0 3.1 1 1
- 0.122 2 3 cbr 1000 ------- 2 1.0 3.1 1 1
+ 0.124 1 2 cbr 1000 ------- 2 1.0 3.1 3 3
- 0.124 1 2 cbr 1000 ------- 2 1.0 3.1 3 3
r 0.13 1 2 cbr 1000 ------- 2 1.0 3.1 2 2
+ 0.13 2 3 cbr 1000 ------- 2 1.0 3.1 2 2
- 0.13 2 3 cbr 1000 ------- 2 1.0 3.1 2 2
+ 0.132 1 2 cbr 1000 ------- 2 1.0 3.1 4 4
- 0.132 1 2 cbr 1000 ------- 2 1.0 3.1 4 4
r 0.138 1 2 cbr 1000 ------- 2 1.0 3.1 3 3
+ 0.138 2 3 cbr 1000 ------- 2 1.0 3.1 3 3
- 0.138 2 3 cbr 1000 ------- 2 1.0 3.1 3 3
r 0.138706 2 3 cbr 1000 ------- 2 1.0 3.1 0 0
+ 0.14 1 2 cbr 1000 ------- 2 1.0 3.1 5 5
- 0.14 1 2 cbr 1000 ------- 2 1.0 3.1 5 5
r 0.146 1 2 cbr 1000 ------- 2 1.0 3.1 4 4
+ 0.146 2 3 cbr 1000 ------- 2 1.0 3.1 4 4
- 0.146 2 3 cbr 1000 ------- 2 1.0 3.1 4 4
r 0.146706 2 3 cbr 1000 ------- 2 1.0 3.1 1 1
+ 0.148 1 2 cbr 1000 ------- 2 1.0 3.1 6 6
- 0.148 1 2 cbr 1000 ------- 2 1.0 3.1 6 6
r 0.154 1 2 cbr 1000 ------- 2 1.0 3.1 5 5
+ 0.154 2 3 cbr 1000 ------- 2 1.0 3.1 5 5
- 0.154 2 3 cbr 1000 ------- 2 1.0 3.1 5 5
r 0.154706 2 3 cbr 1000 ------- 2 1.0 3.1 2 2
+ 0.156 1 2 cbr 1000 ------- 2 1.0 3.1 7 7
- 0.156 1 2 cbr 1000 ------- 2 1.0 3.1 7 7
r 0.162 1 2 cbr 1000 ------- 2 1.0 3.1 6 6
+ 0.162 2 3 cbr 1000 ------- 2 1.0 3.1 6 6
- 0.162 2 3 cbr 1000 ------- 2 1.0 3.1 6 6
r 0.162706 2 3 cbr 1000 ------- 2 1.0 3.1 3 3
+ 0.164 1 2 cbr 1000 ------- 2 1.0 3.1 8 8
- 0.164 1 2 cbr 1000 ------- 2 1.0 3.1 8 8
r 0.17 1 2 cbr 1000 ------- 2 1.0 3.1 7 7
+ 0.17 2 3 cbr 1000 ------- 2 1.0 3.1 7 7
- 0.17 2 3 cbr 1000 ------- 2 1.0 3.1 7 7
r 0.170706 2 3 cbr 1000 ------- 2 1.0 3.1 4 4
+ 0.172 1 2 cbr 1000 ------- 2 1.0 3.1 9 9
- 0.172 1 2 cbr 1000 ------- 2 1.0 3.1 9 9
r 0.178 1 2 cbr 1000 ------- 2 1.0 3.1 8 8
+ 0.178 2 3 cbr 1000 ------- 2 1.0 3.1 8 8
- 0.178 2 3 cbr 1000 ------- 2 1.0 3.1 8 8
r 0.178706 2 3 cbr 1000 ------- 2 1.0 3.1 5 5
+ 0.18 1 2 cbr 1000 ------- 2 1.0 3.1 10 10
- 0.18 1 2 cbr 1000 ------- 2 1.0 3.1 10 10
r 0.186 1 2 cbr 1000 ------- 2 1.0 3.1 9 9
+ 0.186 2 3 cbr 1000 ------- 2 1.0 3.1 9 9
- 0.186 2 3 cbr 1000 ------- 2 1.0 3.1 9 9
r 0.186706 2 3 cbr 1000 ------- 2 1.0 3.1 6 6
+ 0.188 1 2 cbr 1000 ------- 2 1.0 3.1 11 11
- 0.188 1 2 cbr 1000 ------- 2 1.0 3.1 11 11
r 0.194 1 2 cbr 1000 ------- 2 1.0 3.1 10 10
+ 0.194 2 3 cbr 1000 ------- 2 1.0 3.1 10 10
- 0.194 2 3 cbr 1000 ------- 2 1.0 3.1 10 10
r 0.194706 2 3 cbr 1000 ------- 2 1.0 3.1 7 7
+ 0.196 1 2 cbr 1000 ------- 2 1.0 3.1 12 12
- 0.196 1 2 cbr 1000 ------- 2 1.0 3.1 12 12
r 0.202 1 2 cbr 1000 ------- 2 1.0 3.1 11 11
+ 0.202 2 3 cbr 1000 ------- 2 1.0 3.1 11 11
- 0.202 2 3 cbr 1000 ------- 2 1.0 3.1 11 11
r 0.202706 2 3 cbr 1000 ------- 2 1.0 3.1 8 8
+ 0.204 1 2 cbr 1000 ------- 2 1.0 3.1 13 13
- 0.204 1 2 cbr 1000 ------- 2 1.0 3.1 13 13
r 0.21 1 2 cbr 1000 ------- 2 1.0 3.1 12 12
+ 0.21 2 3 cbr 1000 ------- 2 1.0 3.1 12 12
- 0.21 2 3 cbr 1000 ------- 2 1.0 3.1 12 12
r 0.210706 2 3 cbr 1000 ------- 2 1.0 3.1 9 9
+ 0.212 1 2 cbr 1000 ------- 2 1.0 3.1 14 14
- 0.212 1 2 cbr 1000 ------- 2 1.0 3.1 14 14
r 0.218 1 2 cbr 1000 ------- 2 1.0 3.1 13 13
+ 0.218 2 3 cbr 1000 ------- 2 1.0 3.1 13 13
- 0.218 2 3 cbr 1000 ------- 2 1.0 3.1 13 13
r 0.218706 2 3 cbr 1000 ------- 2 1.0 3.1 10 10
+ 0.22 1 2 cbr 1000 ------- 2 1.0 3.1 15 15
- 0.22 1 2 cbr 1000 ------- 2 1.0 3.1 15 15
r 0.226 1 2 cbr 1000 ------- 2 1.0 3.1 14 14
+ 0.226 2 3 cbr 1000 ------- 2 1.0 3.1 14 14
- 0.226 2 3 cbr 1000 ------- 2 1.0 3.1 14 14
r 0.226706 2 3 cbr 1000 ------- 2 1.0 3.1 11 11
+ 0.228 1 2 cbr 1000 ------- 2 1.0 3.1 16 16
- 0.228 1 2 cbr 1000 ------- 2 1.0 3.1 16 16
r 0.234 1 2 cbr 1000 ------- 2 1.0 3.1 15 15
+ 0.234 2 3 cbr 1000 ------- 2 1.0 3.1 15 15
- 0.234 2 3 cbr 1000 ------- 2 1.0 3.1 15 15
r 0.234706 2 3 cbr 1000 ------- 2 1.0 3.1 12 12
+ 0.236 1 2 cbr 1000 ------- 2 1.0 3.1 17 17
- 0.236 1 2 cbr 1000 ------- 2 1.0 3.1 17 17
r 0.242 1 2 cbr 1000 ------- 2 1.0 3.1 16 16
+ 0.242 2 3 cbr 1000 ------- 2 1.0 3.1 16 16
- 0.242 2 3 cbr 1000 ------- 2 1.0 3.1 16 16
r 0.242706 2 3 cbr 1000 ------- 2 1.0 3.1 13 13
+ 0.244 1 2 cbr 1000 ------- 2 1.0 3.1 18 18
- 0.244 1 2 cbr 1000 ------- 2 1.0 3.1 18 18
r 0.25 1 2 cbr 1000 ------- 2 1.0 3.1 17 17
+ 0.25 2 3 cbr 1000 ------- 2 1.0 3.1 17 17
- 0.25 2 3 cbr 1000 ------- 2 1.0 3.1 17 17
r 0.250706 2 3 cbr 1000 ------- 2 1.0 3.1 14 14
+ 0.252 1 2 cbr 1000 ------- 2 1.0 3.1 19 19
- 0.252 1 2 cbr 1000 ------- 2 1.0 3.1 19 19
r 0.258 1 2 cbr 1000 ------- 2 1.0 3.1 18 18
+ 0.258 2 3 cbr 1000 ------- 2 1.0 3.1 18 18
- 0.258 2 3 cbr 1000 ------- 2 1.0 3.1 18 18
r 0.258706 2 3 cbr 1000 ------- 2 1.0 3.1 15 15
+ 0.26 1 2 cbr 1000 ------- 2 1.0 3.1 20 20
- 0.26 1 2 cbr 1000 ------- 2 1.0 3.1 20 20
r 0.266 1 2 cbr 1000 ------- 2 1.0 3.1 19 19
+ 0.266 2 3 cbr 1000 ------- 2 1.0 3.1 19 19
- 0.266 2 3 cbr 1000 ------- 2 1.0 3.1 19 19
r 0.266706 2 3 cbr 1000 ------- 2 1.0 3.1 16 16
+ 0.268 1 2 cbr 1000 ------- 2 1.0 3.1 21 21
- 0.268 1 2 cbr 1000 ------- 2 1.0 3.1 21 21
r 0.274 1 2 cbr 1000 ------- 2 1.0 3.1 20 20
+ 0.274 2 3 cbr 1000 ------- 2 1.0 3.1 20 20
- 0.274 2 3 cbr 1000 ------- 2 1.0 3.1 20 20
r 0.274706 2 3 cbr 1000 ------- 2 1.0 3.1 17 17
+ 0.276 1 2 cbr 1000 ------- 2 1.0 3.1 22 22
- 0.276 1 2 cbr 1000 ------- 2 1.0 3.1 22 22
r 0.282 1 2 cbr 1000 ------- 2 1.0 3.1 21 21
+ 0.282 2 3 cbr 1000 ------- 2 1.0 3.1 21 21
- 0.282 2 3 cbr 1000 ------- 2 1.0 3.1 21 21
r 0.282706 2 3 cbr 1000 ------- 2 1.0 3.1 18 18
+ 0.284 1 2 cbr 1000 ------- 2 1.0 3.1 23 23
- 0.284 1 2 cbr 1000 ------- 2 1.0 3.1 23 23
r 0.29 1 2 cbr 1000 ------- 2 1.0 3.1 22 22
+ 0.29 2 3 cbr 1000 ------- 2 1.0 3.1 22 22
- 0.29 2 3 cbr 1000 ------- 2 1.0 3.1 22 22
r 0.290706 2 3 cbr 1000 ------- 2 1.0 3.1 19 19
+ 0.292 1 2 cbr 1000 ------- 2 1.0 3.1 24 24
- 0.292 1 2 cbr 1000 ------- 2 1.0 3.1 24 24
r 0.298 1 2 cbr 1000 ------- 2 1.0 3.1 23 23
+ 0.298 2 3 cbr 1000 ------- 2 1.0 3.1 23 23
- 0.298 2 3 cbr 1000 ------- 2 1.0 3.1 23 23
r 0.298706 2 3 cbr 1000 ------- 2 1.0 3.1 20 20
+ 0.3 1 2 cbr 1000 ------- 2 1.0 3.1 25 25
- 0.3 1 2 cbr 1000 ------- 2 1.0 3.1 25 25
r 0.306 1 2 cbr 1000 ------- 2 1.0 3.1 24 24
+ 0.306 2 3 cbr 1000 ------- 2 1.0 3.1 24 24
- 0.306 2 3 cbr 1000 ------- 2 1.0 3.1 24 24
r 0.306706 2 3 cbr 1000 ------- 2 1.0 3.1 21 21
+ 0.308 1 2 cbr 1000 ------- 2 1.0 3.1 26 26
- 0.308 1 2 cbr 1000 ------- 2 1.0 3.1 26 26
r 0.314 1 2 cbr 1000 ------- 2 1.0 3.1 25 25
+ 0.314 2 3 cbr 1000 ------- 2 1.0 3.1 25 25
- 0.314 2 3 cbr 1000 ------- 2 1.0 3.1 25 25
r 0.314706 2 3 cbr 1000 ------- 2 1.0 3.1 22 22
+ 0.316 1 2 cbr 1000 ------- 2 1.0 3.1 27 27
- 0.316 1 2 cbr 1000 ------- 2 1.0 3.1 27 27
r 0.322 1 2 cbr 1000 ------- 2 1.0 3.1 26 26
+ 0.322 2 3 cbr 1000 ------- 2 1.0 3.1 26 26
- 0.322 2 3 cbr 1000 ------- 2 1.0 3.1 26 26
r 0.322706 2 3 cbr 1000 ------- 2 1.0 3.1 23 23
+ 0.324 1 2 cbr 1000 ------- 2 1.0 3.1 28 28
- 0.324 1 2 cbr 1000 ------- 2 1.0 3.1 28 28
r 0.33 1 2 cbr 1000 ------- 2 1.0 3.1 27 27
+ 0.33 2 3 cbr 1000 ------- 2 1.0 3.1 27 27
- 0.33 2 3 cbr 1000 ------- 2 1.0 3.1 27 27
r 0.330706 2 3 cbr 1000 ------- 2 1.0 3.1 24 24
+ 0.332 1 2 cbr 1000 ------- 2 1.0 3.1 29 29
- 0.332 1 2 cbr 1000 ------- 2 1.0 3.1 29 29
r 0.338 1 2 cbr 1000 ------- 2 1.0 3.1 28 28
+ 0.338 2 3 cbr 1000 ------- 2 1.0 3.1 28 28
- 0.338 2 3 cbr 1000 ------- 2 1.0 3.1 28 28
r 0.338706 2 3 cbr 1000 ------- 2 1.0 3.1 25 25
+ 0.34 1 2 cbr 1000 ------- 2 1.0 3.1 30 30
- 0.34 1 2 cbr 1000 ------- 2 1.0 3.1 30 30
r 0.346 1 2 cbr 1000 ------- 2 1.0 3.1 29 29
+ 0.346 2 3 cbr 1000 ------- 2 1.0 3.1 29 29
- 0.346 2 3 cbr 1000 ------- 2 1.0 3.1 29 29
r 0.346706 2 3 cbr 1000 ------- 2 1.0 3.1 26 26
+ 0.348 1 2 cbr 1000 ------- 2 1.0 3.1 31 31
- 0.348 1 2 cbr 1000 ------- 2 1.0 3.1 31 31
r 0.354 1 2 cbr 1000 ------- 2 1.0 3.1 30 30
+ 0.354 2 3 cbr 1000 ------- 2 1.0 3.1 30 30
- 0.354 2 3 cbr 1000 ------- 2 1.0 3.1 30 30
r 0.354706 2 3 cbr 1000 ------- 2 1.0 3.1 27 27
+ 0.356 1 2 cbr 1000 ------- 2 1.0 3.1 32 32
- 0.356 1 2 cbr 1000 ------- 2 1.0 3.1 32 32
r 0.362 1 2 cbr 1000 ------- 2 1.0 3.1 31 31
+ 0.362 2 3 cbr 1000 ------- 2 1.0 3.1 31 31
- 0.362 2 3 cbr 1000 ------- 2 1.0 3.1 31 31
r 0.362706 2 3 cbr 1000 ------- 2 1.0 3.1 28 28
+ 0.364 1 2 cbr 1000 ------- 2 1.0 3.1 33 33
- 0.364 1 2 cbr 1000 ------- 2 1.0 3.1 33 33
r 0.37 1 2 cbr 1000 ------- 2 1.0 3.1 32 32
+ 0.37 2 3 cbr 1000 ------- 2 1.0 3.1 32 32
- 0.37 2 3 cbr 1000 ------- 2 1.0 3.1 32 32
r 0.370706 2 3 cbr 1000 ------- 2 1.0 3.1 29 29
+ 0.372 1 2 cbr 1000 ------- 2 1.0 3.1 34 34
- 0.372 1 2 cbr 1000 ------- 2 1.0 3.1 34 34
r 0.378 1 2 cbr 1000 ------- 2 1.0 3.1 33 33
+ 0.378 2 3 cbr 1000 ------- 2 1.0 3.1 33 33
- 0.378 2 3 cbr 1000 ------- 2 1.0 3.1 33 33
r 0.378706 2 3 cbr 1000 ------- 2 1.0 3.1 30 30
+ 0.38 1 2 cbr 1000 ------- 2 1.0 3.1 35 35
- 0.38 1 2 cbr 1000 ------- 2 1.0 3.1 35 35
r 0.386 1 2 cbr 1000 ------- 2 1.0 3.1 34 34
+ 0.386 2 3 cbr 1000 ------- 2 1.0 3.1 34 34
- 0.386 2 3 cbr 1000 ------- 2 1.0 3.1 34 34
r 0.386706 2 3 cbr 1000 ------- 2 1.0 3.1 31 31
+ 0.388 1 2 cbr 1000 ------- 2 1.0 3.1 36 36
- 0.388 1 2 cbr 1000 ------- 2 1.0 3.1 36 36
r 0.394 1 2 cbr 1000 ------- 2 1.0 3.1 35 35
+ 0.394 2 3 cbr 1000 ------- 2 1.0 3.1 35 35
- 0.394 2 3 cbr 1000 ------- 2 1.0 3.1 35 35
r 0.394706 2 3 cbr 1000 ------- 2 1.0 3.1 32 32
+ 0.396 1 2 cbr 1000 ------- 2 1.0 3.1 37 37
- 0.396 1 2 cbr 1000 ------- 2 1.0 3.1 37 37
r 0.402 1 2 cbr 1000 ------- 2 1.0 3.1 36 36
+ 0.402 2 3 cbr 1000 ------- 2 1.0 3.1 36 36
- 0.402 2 3 cbr 1000 ------- 2 1.0 3.1 36 36
r 0.402706 2 3 cbr 1000 ------- 2 1.0 3.1 33 33
+ 0.404 1 2 cbr 1000 ------- 2 1.0 3.1 38 38
- 0.404 1 2 cbr 1000 ------- 2 1.0 3.1 38 38
r 0.41 1 2 cbr 1000 ------- 2 1.0 3.1 37 37
+ 0.41 2 3 cbr 1000 ------- 2 1.0 3.1 37 37
- 0.41 2 3 cbr 1000 ------- 2 1.0 3.1 37 37
r 0.410706 2 3 cbr 1000 ------- 2 1.0 3.1 34 34
+ 0.412 1 2 cbr 1000 ------- 2 1.0 3.1 39 39
- 0.412 1 2 cbr 1000 ------- 2 1.0 3.1 39 39
r 0.418 1 2 cbr 1000 ------- 2 1.0 3.1 38 38
+ 0.418 2 3 cbr 1000 ------- 2 1.0 3.1 38 38
- 0.418 2 3 cbr 1000 ------- 2 1.0 3.1 38 38
r 0.418706 2 3 cbr 1000 ------- 2 1.0 3.1 35 35
+ 0.42 1 2 cbr 1000 ------- 2 1.0 3.1 40 40
- 0.42 1 2 cbr 1000 ------- 2 1.0 3.1 40 40
r 0.426 1 2 cbr 1000 ------- 2 1.0 3.1 39 39
+ 0.426 2 3 cbr 1000 ------- 2 1.0 3.1 39 39
- 0.426 2 3 cbr 1000 ------- 2 1.0 3.1 39 39
r 0.426706 2 3 cbr 1000 ------- 2 1.0 3.1 36 36
+ 0.428 1 2 cbr 1000 ------- 2 1.0 3.1 41 41
- 0.428 1 2 cbr 1000 ------- 2 1.0 3.1 41 41
r 0.434 1 2 cbr 1000 ------- 2 1.0 3.1 40 40
+ 0.434 2 3 cbr 1000 ------- 2 1.0 3.1 40 40
- 0.434 2 3 cbr 1000 ------- 2 1.0 3.1 40 40
r 0.434706 2 3 cbr 1000 ------- 2 1.0 3.1 37 37
+ 0.436 1 2 cbr 1000 ------- 2 1.0 3.1 42 42
- 0.436 1 2 cbr 1000 ------- 2 1.0 3.1 42 42
r 0.442 1 2 cbr 1000 ------- 2 1.0 3.1 41 41
+ 0.442 2 3 cbr 1000 ------- 2 1.0 3.1 41 41
- 0.442 2 3 cbr 1000 ------- 2 1.0 3.1 41 41
r 0.442706 2 3 cbr 1000 ------- 2 1.0 3.1 38 38
+ 0.444 1 2 cbr 1000 ------- 2 1.0 3.1 43 43
- 0.444 1 2 cbr 1000 ------- 2 1.0 3.1 43 43
r 0.45 1 2 cbr 1000 ------- 2 1.0 3.1 42 42
+ 0.45 2 3 cbr 1000 ------- 2 1.0 3.1 42 42
- 0.45 2 3 cbr 1000 ------- 2 1.0 3.1 42 42
r 0.450706 2 3 cbr 1000 ------- 2 1.0 3.1 39 39
+ 0.452 1 2 cbr 1000 ------- 2 1.0 3.1 44 44
- 0.452 1 2 cbr 1000 ------- 2 1.0 3.1 44 44
r 0.458 1 2 cbr 1000 ------- 2 1.0 3.1 43 43
+ 0.458 2 3 cbr 1000 ------- 2 1.0 3.1 43 43
- 0.458 2 3 cbr 1000 ------- 2 1.0 3.1 43 43
r 0.458706 2 3 cbr 1000 ------- 2 1.0 3.1 40 40
+ 0.46 1 2 cbr 1000 ------- 2 1.0 3.1 45 45
- 0.46 1 2 cbr 1000 ------- 2 1.0 3.1 45 45
r 0.466 1 2 cbr 1000 ------- 2 1.0 3.1 44 44
+ 0.466 2 3 cbr 1000 ------- 2 1.0 3.1 44 44
- 0.466 2 3 cbr 1000 ------- 2 1.0 3.1 44 44
r 0.466706 2 3 cbr 1000 ------- 2 1.0 3.1 41 41
+ 0.468 1 2 cbr 1000 ------- 2 1.0 3.1 46 46
- 0.468 1 2 cbr 1000 ------- 2 1.0 3.1 46 46
r 0.474 1 2 cbr 1000 ------- 2 1.0 3.1 45 45
+ 0.474 2 3 cbr 1000 ------- 2 1.0 3.1 45 45
- 0.474 2 3 cbr 1000 ------- 2 1.0 3.1 45 45
r 0.474706 2 3 cbr 1000 ------- 2 1.0 3.1 42 42
+ 0.476 1 2 cbr 1000 ------- 2 1.0 3.1 47 47
- 0.476 1 2 cbr 1000 ------- 2 1.0 3.1 47 47
r 0.482 1 2 cbr 1000 ------- 2 1.0 3.1 46 46
+ 0.482 2 3 cbr 1000 ------- 2 1.0 3.1 46 46
- 0.482 2 3 cbr 1000 ------- 2 1.0 3.1 46 46
r 0.482706 2 3 cbr 1000 ------- 2 1.0 3.1 43 43
+ 0.484 1 2 cbr 1000 ------- 2 1.0 3.1 48 48
- 0.484 1 2 cbr 1000 ------- 2 1.0 3.1 48 48
r 0.49 1 2 cbr 1000 ------- 2 1.0 3.1 47 47
+ 0.49 2 3 cbr 1000 ------- 2 1.0 3.1 47 47
- 0.49 2 3 cbr 1000 ------- 2 1.0 3.1 47 47
r 0.490706 2 3 cbr 1000 ------- 2 1.0 3.1 44 44
+ 0.492 1 2 cbr 1000 ------- 2 1.0 3.1 49 49
- 0.492 1 2 cbr 1000 ------- 2 1.0 3.1 49 49
r 0.498 1 2 cbr 1000 ------- 2 1.0 3.1 48 48
+ 0.498 2 3 cbr 1000 ------- 2 1.0 3.1 48 48
- 0.498 2 3 cbr 1000 ------- 2 1.0 3.1 48 48
r 0.498706 2 3 cbr 1000 ------- 2 1.0 3.1 45 45
+ 0.5 1 2 cbr 1000 ------- 2 1.0 3.1 50 50
- 0.5 1 2 cbr 1000 ------- 2 1.0 3.1 50 50
r 0.506 1 2 cbr 1000 ------- 2 1.0 3.1 49 49
+ 0.506 2 3 cbr 1000 ------- 2 1.0 3.1 49 49
- 0.506 2 3 cbr 1000 ------- 2 1.0 3.1 49 49
r 0.506706 2 3 cbr 1000 ------- 2 1.0 3.1 46 46
+ 0.508 1 2 cbr 1000 ------- 2 1.0 3.1 51 51
- 0.508 1 2 cbr 1000 ------- 2 1.0 3.1 51 51
r 0.514 1 2 cbr 1000 ------- 2 1.0 3.1 50 50
+ 0.514 2 3 cbr 1000 ------- 2 1.0 3.1 50 50
- 0.514 2 3 cbr 1000 ------- 2 1.0 3.1 50 50
r 0.514706 2 3 cbr 1000 ------- 2 1.0 3.1 47 47
+ 0.516 1 2 cbr 1000 ------- 2 1.0 3.1 52 52
- 0.516 1 2 cbr 1000 ------- 2 1.0 3.1 52 52
r 0.522 1 2 cbr 1000 ------- 2 1.0 3.1 51 51
+ 0.522 2 3 cbr 1000 ------- 2 1.0 3.1 51 51
- 0.522 2 3 cbr 1000 ------- 2 1.0 3.1 51 51
r 0.522706 2 3 cbr 1000 ------- 2 1.0 3.1 48 48
+ 0.524 1 2 cbr 1000 ------- 2 1.0 3.1 53 53
- 0.524 1 2 cbr 1000 ------- 2 1.0 3.1 53 53
r 0.53 1 2 cbr 1000 ------- 2 1.0 3.1 52 52
+ 0.53 2 3 cbr 1000 ------- 2 1.0 3.1 52 52
- 0.53 2 3 cbr 1000 ------- 2 1.0 3.1 52 52
r 0.530706 2 3 cbr 1000 ------- 2 1.0 3.1 49 49
+ 0.532 1 2 cbr 1000 ------- 2 1.0 3.1 54 54
- 0.532 1 2 cbr 1000 ------- 2 1.0 3.1 54 54
r 0.538 1 2 cbr 1000 ------- 2 1.0 3.1 53 53
+ 0.538 2 3 cbr 1000 ------- 2 1.0 3.1 53 53
- 0.538 2 3 cbr 1000 ------- 2 1.0 3.1 53 53
r 0.538706 2 3 cbr 1000 ------- 2 1.0 3.1 50 50
+ 0.54 1 2 cbr 1000 ------- 2 1.0 3.1 55 55
- 0.54 1 2 cbr 1000 ------- 2 1.0 3.1 55 55
r 0.546 1 2 cbr 1000 ------- 2 1.0 3.1 54 54
+ 0.546 2 3 cbr 1000 ------- 2 1.0 3.1 54 54
- 0.546 2 3 cbr 1000 ------- 2 1.0 3.1 54 54
r 0.546706 2 3 cbr 1000 ------- 2 1.0 3.1 51 51
+ 0.548 1 2 cbr 1000 ------- 2 1.0 3.1 56 56
- 0.548 1 2 cbr 1000 ------- 2 1.0 3.1 56 56
r 0.554 1 2 cbr 1000 ------- 2 1.0 3.1 55 55
+ 0.554 2 3 cbr 1000 ------- 2 1.0 3.1 55 55
- 0.554 2 3 cbr 1000 ------- 2 1.0 3.1 55 55
r 0.554706 2 3 cbr 1000 ------- 2 1.0 3.1 52 52
+ 0.556 1 2 cbr 1000 ------- 2 1.0 3.1 57 57
- 0.556 1 2 cbr 1000 ------- 2 1.0 3.1 57 57
r 0.562 1 2 cbr 1000 ------- 2 1.0 3.1 56 56
+ 0.562 2 3 cbr 1000 ------- 2 1.0 3.1 56 56
- 0.562 2 3 cbr 1000 ------- 2 1.0 3.1 56 56
r 0.562706 2 3 cbr 1000 ------- 2 1.0 3.1 53 53
+ 0.564 1 2 cbr 1000 ------- 2 1.0 3.1 58 58
- 0.564 1 2 cbr 1000 ------- 2 1.0 3.1 58 58
r 0.57 1 2 cbr 1000 ------- 2 1.0 3.1 57 57
+ 0.57 2 3 cbr 1000 ------- 2 1.0 3.1 57 57
- 0.57 2 3 cbr 1000 ------- 2 1.0 3.1 57 57
r 0.570706 2 3 cbr 1000 ------- 2 1.0 3.1 54 54
+ 0.572 1 2 cbr 1000 ------- 2 1.0 3.1 59 59
- 0.572 1 2 cbr 1000 ------- 2 1.0 3.1 59 59
r 0.578 1 2 cbr 1000 ------- 2 1.0 3.1 58 58
+ 0.578 2 3 cbr 1000 ------- 2 1.0 3.1 58 58
- 0.578 2 3 cbr 1000 ------- 2 1.0 3.1 58 58
r 0.578706 2 3 cbr 1000 ------- 2 1.0 3.1 55 55
+ 0.58 1 2 cbr 1000 ------- 2 1.0 3.1 60 60
- 0.58 1 2 cbr 1000 ------- 2 1.0 3.1 60 60
r 0.586 1 2 cbr 1000 ------- 2 1.0 3.1 59 59
+ 0.586 2 3 cbr 1000 ------- 2 1.0 3.1 59 59
- 0.586 2 3 cbr 1000 ------- 2 1.0 3.1 59 59
r 0.586706 2 3 cbr 1000 ------- 2 1.0 3.1 56 56
+ 0.588 1 2 cbr 1000 ------- 2 1.0 3.1 61 61
- 0.588 1 2 cbr 1000 ------- 2 1.0 3.1 61 61
r 0.594 1 2 cbr 1000 ------- 2 1.0 3.1 60 60
+ 0.594 2 3 cbr 1000 ------- 2 1.0 3.1 60 60
- 0.594 2 3 cbr 1000 ------- 2 1.0 3.1 60 60
r 0.594706 2 3 cbr 1000 ------- 2 1.0 3.1 57 57
+ 0.596 1 2 cbr 1000 ------- 2 1.0 3.1 62 62
- 0.596 1 2 cbr 1000 ------- 2 1.0 3.1 62 62
r 0.602 1 2 cbr 1000 ------- 2 1.0 3.1 61 61
+ 0.602 2 3 cbr 1000 ------- 2 1.0 3.1 61 61
- 0.602 2 3 cbr 1000 ------- 2 1.0 3.1 61 61
r 0.602706 2 3 cbr 1000 ------- 2 1.0 3.1 58 58
+ 0.604 1 2 cbr 1000 ------- 2 1.0 3.1 63 63
- 0.604 1 2 cbr 1000 ------- 2 1.0 3.1 63 63
r 0.61 1 2 cbr 1000 ------- 2 1.0 3.1 62 62
+ 0.61 2 3 cbr 1000 ------- 2 1.0 3.1 62 62
- 0.61 2 3 cbr 1000 ------- 2 1.0 3.1 62 62
r 0.610706 2 3 cbr 1000 ------- 2 1.0 3.1 59 59
+ 0.612 1 2 cbr 1000 ------- 2 1.0 3.1 64 64
- 0.612 1 2 cbr 1000 ------- 2 1.0 3.1 64 64
r 0.618 1 2 cbr 1000 ------- 2 1.0 3.1 63 63
+ 0.618 2 3 cbr 1000 ------- 2 1.0 3.1 63 63
- 0.618 2 3 cbr 1000 ------- 2 1.0 3.1 63 63
r 0.618706 2 3 cbr 1000 ------- 2 1.0 3.1 60 60
+ 0.62 1 2 cbr 1000 ------- 2 1.0 3.1 65 65
- 0.62 1 2 cbr 1000 ------- 2 1.0 3.1 65 65
r 0.626 1 2 cbr 1000 ------- 2 1.0 3.1 64 64
+ 0.626 2 3 cbr 1000 ------- 2 1.0 3.1 64 64
- 0.626 2 3 cbr 1000 ------- 2 1.0 3.1 64 64
r 0.626706 2 3 cbr 1000 ------- 2 1.0 3.1 61 61
+ 0.628 1 2 cbr 1000 ------- 2 1.0 3.1 66 66
- 0.628 1 2 cbr 1000 ------- 2 1.0 3.1 66 66
r 0.634 1 2 cbr 1000 ------- 2 1.0 3.1 65 65
+ 0.634 2 3 cbr 1000 ------- 2 1.0 3.1 65 65
- 0.634 2 3 cbr 1000 ------- 2 1.0 3.1 65 65
r 0.634706 2 3 cbr 1000 ------- 2 1.0 3.1 62 62
+ 0.636 1 2 cbr 1000 ------- 2 1.0 3.1 67 67
- 0.636 1 2 cbr 1000 ------- 2 1.0 3.1 67 67
r 0.642 1 2 cbr 1000 ------- 2 1.0 3.1 66 66
+ 0.642 2 3 cbr 1000 ------- 2 1.0 3.1 66 66
- 0.642 2 3 cbr 1000 ------- 2 1.0 3.1 66 66
r 0.642706 2 3 cbr 1000 ------- 2 1.0 3.1 63 63
+ 0.644 1 2 cbr 1000 ------- 2 1.0 3.1 68 68
- 0.644 1 2 cbr 1000 ------- 2 1.0 3.1 68 68
r 0.65 1 2 cbr 1000 ------- 2 1.0 3.1 67 67
+ 0.65 2 3 cbr 1000 ------- 2 1.0 3.1 67 67
- 0.65 2 3 cbr 1000 ------- 2 1.0 3.1 67 67
r 0.650706 2 3 cbr 1000 ------- 2 1.0 3.1 64 64
+ 0.652 1 2 cbr 1000 ------- 2 1.0 3.1 69 69
- 0.652 1 2 cbr 1000 ------- 2 1.0 3.1 69 69
r 0.658 1 2 cbr 1000 ------- 2 1.0 3.1 68 68
+ 0.658 2 3 cbr 1000 ------- 2 1.0 3.1 68 68
- 0.658 2 3 cbr 1000 ------- 2 1.0 3.1 68 68
r 0.658706 2 3 cbr 1000 ------- 2 1.0 3.1 65 65
+ 0.66 1 2 cbr 1000 ------- 2 1.0 3.1 70 70
- 0.66 1 2 cbr 1000 ------- 2 1.0 3.1 70 70
r 0.666 1 2 cbr 1000 ------- 2 1.0 3.1 69 69
+ 0.666 2 3 cbr 1000 ------- 2 1.0 3.1 69 69
- 0.666 2 3 cbr 1000 ------- 2 1.0 3.1 69 69
r 0.666706 2 3 cbr 1000 ------- 2 1.0 3.1 66 66
+ 0.668 1 2 cbr 1000 ------- 2 1.0 3.1 71 71
- 0.668 1 2 cbr 1000 ------- 2 1.0 3.1 71 71
r 0.674 1 2 cbr 1000 ------- 2 1.0 3.1 70 70
+ 0.674 2 3 cbr 1000 ------- 2 1.0 3.1 70 70
- 0.674 2 3 cbr 1000 ------- 2 1.0 3.1 70 70
r 0.674706 2 3 cbr 1000 ------- 2 1.0 3.1 67 67
+ 0.676 1 2 cbr 1000 ------- 2 1.0 3.1 72 72
- 0.676 1 2 cbr 1000 ------- 2 1.0 3.1 72 72
r 0.682 1 2 cbr 1000 ------- 2 1.0 3.1 71 71
+ 0.682 2 3 cbr 1000 ------- 2 1.0 3.1 71 71
- 0.682 2 3 cbr 1000 ------- 2 1.0 3.1 71 71
r 0.682706 2 3 cbr 1000 ------- 2 1.0 3.1 68 68
+ 0.684 1 2 cbr 1000 ------- 2 1.0 3.1 73 73
- 0.684 1 2 cbr 1000 ------- 2 1.0 3.1 73 73
r 0.69 1 2 cbr 1000 ------- 2 1.0 3.1 72 72
+ 0.69 2 3 cbr 1000 ------- 2 1.0 3.1 72 72
- 0.69 2 3 cbr 1000 ------- 2 1.0 3.1 72 72
r 0.690706 2 3 cbr 1000 ------- 2 1.0 3.1 69 69
+ 0.692 1 2 cbr 1000 ------- 2 1.0 3.1 74 74
- 0.692 1 2 cbr 1000 ------- 2 1.0 3.1 74 74
r 0.698 1 2 cbr 1000 ------- 2 1.0 3.1 73 73
+ 0.698 2 3 cbr 1000 ------- 2 1.0 3.1 73 73
- 0.698 2 3 cbr 1000 ------- 2 1.0 3.1 73 73
r 0.698706 2 3 cbr 1000 ------- 2 1.0 3.1 70 70
+ 0.7 1 2 cbr 1000 ------- 2 1.0 3.1 75 75
- 0.7 1 2 cbr 1000 ------- 2 1.0 3.1 75 75
r 0.706 1 2 cbr 1000 ------- 2 1.0 3.1 74 74
+ 0.706 2 3 cbr 1000 ------- 2 1.0 3.1 74 74
- 0.706 2 3 cbr 1000 ------- 2 1.0 3.1 74 74
r 0.706706 2 3 cbr 1000 ------- 2 1.0 3.1 71 71
+ 0.708 1 2 cbr 1000 ------- 2 1.0 3.1 76 76
- 0.708 1 2 cbr 1000 ------- 2 1.0 3.1 76 76
r 0.714 1 2 cbr 1000 ------- 2 1.0 3.1 75 75
+ 0.714 2 3 cbr 1000 ------- 2 1.0 3.1 75 75
- 0.714 2 3 cbr 1000 ------- 2 1.0 3.1 75 75
r 0.714706 2 3 cbr 1000 ------- 2 1.0 3.1 72 72
+ 0.716 1 2 cbr 1000 ------- 2 1.0 3.1 77 77
- 0.716 1 2 cbr 1000 ------- 2 1.0 3.1 77 77
r 0.722 1 2 cbr 1000 ------- 2 1.0 3.1 76 76
+ 0.722 2 3 cbr 1000 ------- 2 1.0 3.1 76 76
- 0.722 2 3 cbr 1000 ------- 2 1.0 3.1 76 76
r 0.722706 2 3 cbr 1000 ------- 2 1.0 3.1 73 73
+ 0.724 1 2 cbr 1000 ------- 2 1.0 3.1 78 78
- 0.724 1 2 cbr 1000 ------- 2 1.0 3.1 78 78
r 0.73 1 2 cbr 1000 ------- 2 1.0 3.1 77 77
+ 0.73 2 3 cbr 1000 ------- 2 1.0 3.1 77 77
- 0.73 2 3 cbr 1000 ------- 2 1.0 3.1 77 77
r 0.730706 2 3 cbr 1000 ------- 2 1.0 3.1 74 74
+ 0.732 1 2 cbr 1000 ------- 2 1.0 3.1 79 79
- 0.732 1 2 cbr 1000 ------- 2 1.0 3.1 79 79
r 0.738 1 2 cbr 1000 ------- 2 1.0 3.1 78 78
+ 0.738 2 3 cbr 1000 ------- 2 1.0 3.1 78 78
- 0.738 2 3 cbr 1000 ------- 2 1.0 3.1 78 78
r 0.738706 2 3 cbr 1000 ------- 2 1.0 3.1 75 75
+ 0.74 1 2 cbr 1000 ------- 2 1.0 3.1 80 80
- 0.74 1 2 cbr 1000 ------- 2 1.0 3.1 80 80
r 0.746 1 2 cbr 1000 ------- 2 1.0 3.1 79 79
+ 0.746 2 3 cbr 1000 ------- 2 1.0 3.1 79 79
- 0.746 2 3 cbr 1000 ------- 2 1.0 3.1 79 79
r 0.746706 2 3 cbr 1000 ------- 2 1.0 3.1 76 76
+ 0.748 1 2 cbr 1000 ------- 2 1.0 3.1 81 81
- 0.748 1 2 cbr 1000 ------- 2 1.0 3.1 81 81
r 0.754 1 2 cbr 1000 ------- 2 1.0 3.1 80 80
+ 0.754 2 3 cbr 1000 ------- 2 1.0 3.1 80 80
- 0.754 2 3 cbr 1000 ------- 2 1.0 3.1 80 80
r 0.754706 2 3 cbr 1000 ------- 2 1.0 3.1 77 77
+ 0.756 1 2 cbr 1000 ------- 2 1.0 3.1 82 82
- 0.756 1 2 cbr 1000 ------- 2 1.0 3.1 82 82
r 0.762 1 2 cbr 1000 ------- 2 1.0 3.1 81 81
+ 0.762 2 3 cbr 1000 ------- 2 1.0 3.1 81 81
- 0.762 2 3 cbr 1000 ------- 2 1.0 3.1 81 81
r 0.762706 2 3 cbr 1000 ------- 2 1.0 3.1 78 78
+ 0.764 1 2 cbr 1000 ------- 2 1.0 3.1 83 83
- 0.764 1 2 cbr 1000 ------- 2 1.0 3.1 83 83
r 0.77 1 2 cbr 1000 ------- 2 1.0 3.1 82 82
+ 0.77 2 3 cbr 1000 ------- 2 1.0 3.1 82 82
- 0.77 2 3 cbr 1000 ------- 2 1.0 3.1 82 82
r 0.770706 2 3 cbr 1000 ------- 2 1.0 3.1 79 79
+ 0.772 1 2 cbr 1000 ------- 2 1.0 3.1 84 84
- 0.772 1 2 cbr 1000 ------- 2 1.0 3.1 84 84
r 0.778 1 2 cbr 1000 ------- 2 1.0 3.1 83 83
+ 0.778 2 3 cbr 1000 ------- 2 1.0 3.1 83 83
- 0.778 2 3 cbr 1000 ------- 2 1.0 3.1 83 83
r 0.778706 2 3 cbr 1000 ------- 2 1.0 3.1 80 80
+ 0.78 1 2 cbr 1000 ------- 2 1.0 3.1 85 85
- 0.78 1 2 cbr 1000 ------- 2 1.0 3.1 85 85
r 0.786 1 2 cbr 1000 ------- 2 1.0 3.1 84 84
+ 0.786 2 3 cbr 1000 ------- 2 1.0 3.1 84 84
- 0.786 2 3 cbr 1000 ------- 2 1.0 3.1 84 84
r 0.786706 2 3 cbr 1000 ------- 2 1.0 3.1 81 81
+ 0.788 1 2 cbr 1000 ------- 2 1.0 3.1 86 86
- 0.788 1 2 cbr 1000 ------- 2 1.0 3.1 86 86
r 0.794 1 2 cbr 1000 ------- 2 1.0 3.1 85 85
+ 0.794 2 3 cbr 1000 ------- 2 1.0 3.1 85 85
- 0.794 2 3 cbr 1000 ------- 2 1.0 3.1 85 85
r 0.794706 2 3 cbr 1000 ------- 2 1.0 3.1 82 82
+ 0.796 1 2 cbr 1000 ------- 2 1.0 3.1 87 87
- 0.796 1 2 cbr 1000 ------- 2 1.0 3.1 87 87
r 0.802 1 2 cbr 1000 ------- 2 1.0 3.1 86 86
+ 0.802 2 3 cbr 1000 ------- 2 1.0 3.1 86 86
- 0.802 2 3 cbr 1000 ------- 2 1.0 3.1 86 86
r 0.802706 2 3 cbr 1000 ------- 2 1.0 3.1 83 83
+ 0.804 1 2 cbr 1000 ------- 2 1.0 3.1 88 88
- 0.804 1 2 cbr 1000 ------- 2 1.0 3.1 88 88
r 0.81 1 2 cbr 1000 ------- 2 1.0 3.1 87 87
+ 0.81 2 3 cbr 1000 ------- 2 1.0 3.1 87 87
- 0.81 2 3 cbr 1000 ------- 2 1.0 3.1 87 87
r 0.810706 2 3 cbr 1000 ------- 2 1.0 3.1 84 84
+ 0.812 1 2 cbr 1000 ------- 2 1.0 3.1 89 89
- 0.812 1 2 cbr 1000 ------- 2 1.0 3.1 89 89
r 0.818 1 2 cbr 1000 ------- 2 1.0 3.1 88 88
+ 0.818 2 3 cbr 1000 ------- 2 1.0 3.1 88 88
- 0.818 2 3 cbr 1000 ------- 2 1.0 3.1 88 88
r 0.818706 2 3 cbr 1000 ------- 2 1.0 3.1 85 85
+ 0.82 1 2 cbr 1000 ------- 2 1.0 3.1 90 90
- 0.82 1 2 cbr 1000 ------- 2 1.0 3.1 90 90
r 0.826 1 2 cbr 1000 ------- 2 1.0 3.1 89 89
+ 0.826 2 3 cbr 1000 ------- 2 1.0 3.1 89 89
- 0.826 2 3 cbr 1000 ------- 2 1.0 3.1 89 89
r 0.826706 2 3 cbr 1000 ------- 2 1.0 3.1 86 86
+ 0.828 1 2 cbr 1000 ------- 2 1.0 3.1 91 91
- 0.828 1 2 cbr 1000 ------- 2 1.0 3.1 91 91
r 0.834 1 2 cbr 1000 ------- 2 1.0 3.1 90 90
+ 0.834 2 3 cbr 1000 ------- 2 1.0 3.1 90 90
- 0.834 2 3 cbr 1000 ------- 2 1.0 3.1 90 90
r 0.834706 2 3 cbr 1000 ------- 2 1.0 3.1 87 87
+ 0.836 1 2 cbr 1000 ------- 2 1.0 3.1 92 92
- 0.836 1 2 cbr 1000 ------- 2 1.0 3.1 92 92
r 0.842 1 2 cbr 1000 ------- 2 1.0 3.1 91 91
+ 0.842 2 3 cbr 1000 ------- 2 1.0 3.1 91 91
- 0.842 2 3 cbr 1000 ------- 2 1.0 3.1 91 91
r 0.842706 2 3 cbr 1000 ------- 2 1.0 3.1 88 88
+ 0.844 1 2 cbr 1000 ------- 2 1.0 3.1 93 93
- 0.844 1 2 cbr 1000 ------- 2 1.0 3.1 93 93
r 0.85 1 2 cbr 1000 ------- 2 1.0 3.1 92 92
+ 0.85 2 3 cbr 1000 ------- 2 1.0 3.1 92 92
- 0.85 2 3 cbr 1000 ------- 2 1.0 3.1 92 92
r 0.850706 2 3 cbr 1000 ------- 2 1.0 3.1 89 89
+ 0.852 1 2 cbr 1000 ------- 2 1.0 3.1 94 94
- 0.852 1 2 cbr 1000 ------- 2 1.0 3.1 94 94
r 0.858 1 2 cbr 1000 ------- 2 1.0 3.1 93 93
+ 0.858 2 3 cbr 1000 ------- 2 1.0 3.1 93 93
- 0.858 2 3 cbr 1000 ------- 2 1.0 3.1 93 93
r 0.858706 2 3 cbr 1000 ------- 2 1.0 3.1 90 90
+ 0.86 1 2 cbr 1000 ------- 2 1.0 3.1 95 95
- 0.86 1 2 cbr 1000 ------- 2 1.0 3.1 95 95
r 0.866 1 2 cbr 1000 ------- 2 1.0 3.1 94 94
+ 0.866 2 3 cbr 1000 ------- 2 1.0 3.1 94 94
- 0.866 2 3 cbr 1000 ------- 2 1.0 3.1 94 94
r 0.866706 2 3 cbr 1000 ------- 2 1.0 3.1 91 91
+ 0.868 1 2 cbr 1000 ------- 2 1.0 3.1 96 96
- 0.868 1 2 cbr 1000 ------- 2 1.0 3.1 96 96
r 0.874 1 2 cbr 1000 ------- 2 1.0 3.1 95 95
+ 0.874 2 3 cbr 1000 ------- 2 1.0 3.1 95 95
- 0.874 2 3 cbr 1000 ------- 2 1.0 3.1 95 95
r 0.874706 2 3 cbr 1000 ------- 2 1.0 3.1 92 92
+ 0.876 1 2 cbr 1000 ------- 2 1.0 3.1 97 97
- 0.876 1 2 cbr 1000 ------- 2 1.0 3.1 97 97
r 0.882 1 2 cbr 1000 ------- 2 1.0 3.1 96 96
+ 0.882 2 3 cbr 1000 ------- 2 1.0 3.1 96 96
- 0.882 2 3 cbr 1000 ------- 2 1.0 3.1 96 96
r 0.882706 2 3 cbr 1000 ------- 2 1.0 3.1 93 93
+ 0.884 1 2 cbr 1000 ------- 2 1.0 3.1 98 98
- 0.884 1 2 cbr 1000 ------- 2 1.0 3.1 98 98
r 0.89 1 2 cbr 1000 ------- 2 1.0 3.1 97 97
+ 0.89 2 3 cbr 1000 ------- 2 1.0 3.1 97 97
- 0.89 2 3 cbr 1000 ------- 2 1.0 3.1 97 97
r 0.890706 2 3 cbr 1000 ------- 2 1.0 3.1 94 94
+ 0.892 1 2 cbr 1000 ------- 2 1.0 3.1 99 99
- 0.892 1 2 cbr 1000 ------- 2 1.0 3.1 99 99
r 0.898 1 2 cbr 1000 ------- 2 1.0 3.1 98 98
+ 0.898 2 3 cbr 1000 ------- 2 1.0 3.1 98 98
- 0.898 2 3 cbr 1000 ------- 2 1.0 3.1 98 98
r 0.898706 2 3 cbr 1000 ------- 2 1.0 3.1 95 95
+ 0.9 1 2 cbr 1000 ------- 2 1.0 3.1 100 100
- 0.9 1 2 cbr 1000 ------- 2 1.0 3.1 100 100
r 0.906 1 2 cbr 1000 ------- 2 1.0 3.1 99 99
+ 0.906 2 3 cbr 1000 ------- 2 1.0 3.1 99 99
- 0.906 2 3 cbr 1000 ------- 2 1.0 3.1 99 99
r 0.906706 2 3 cbr 1000 ------- 2 1.0 3.1 96 96
+ 0.908 1 2 cbr 1000 ------- 2 1.0 3.1 101 101
- 0.908 1 2 cbr 1000 ------- 2 1.0 3.1 101 101
r 0.914 1 2 cbr 1000 ------- 2 1.0 3.1 100 100
+ 0.914 2 3 cbr 1000 ------- 2 1.0 3.1 100 100
- 0.914 2 3 cbr 1000 ------- 2 1.0 3.1 100 100
r 0.914706 2 3 cbr 1000 ------- 2 1.0 3.1 97 97
+ 0.916 1 2 cbr 1000 ------- 2 1.0 3.1 102 102
- 0.916 1 2 cbr 1000 ------- 2 1.0 3.1 102 102
r 0.922 1 2 cbr 1000 ------- 2 1.0 3.1 101 101
+ 0.922 2 3 cbr 1000 ------- 2 1.0 3.1 101 101
- 0.922 2 3 cbr 1000 ------- 2 1.0 3.1 101 101
r 0.922706 2 3 cbr 1000 ------- 2 1.0 3.1 98 98
+ 0.924 1 2 cbr 1000 ------- 2 1.0 3.1 103 103
- 0.924 1 2 cbr 1000 ------- 2 1.0 3.1 103 103
r 0.93 1 2 cbr 1000 ------- 2 1.0 3.1 102 102
+ 0.93 2 3 cbr 1000 ------- 2 1.0 3.1 102 102
- 0.93 2 3 cbr 1000 ------- 2 1.0 3.1 102 102
r 0.930706 2 3 cbr 1000 ------- 2 1.0 3.1 99 99
+ 0.932 1 2 cbr 1000 ------- 2 1.0 3.1 104 104
- 0.932 1 2 cbr 1000 ------- 2 1.0 3.1 104 104
r 0.938 1 2 cbr 1000 ------- 2 1.0 3.1 103 103
+ 0.938 2 3 cbr 1000 ------- 2 1.0 3.1 103 103
- 0.938 2 3 cbr 1000 ------- 2 1.0 3.1 103 103
r 0.938706 2 3 cbr 1000 ------- 2 1.0 3.1 100 100
+ 0.94 1 2 cbr 1000 ------- 2 1.0 3.1 105 105
- 0.94 1 2 cbr 1000 ------- 2 1.0 3.1 105 105
r 0.946 1 2 cbr 1000 ------- 2 1.0 3.1 104 104
+ 0.946 2 3 cbr 1000 ------- 2 1.0 3.1 104 104
- 0.946 2 3 cbr 1000 ------- 2 1.0 3.1 104 104
r 0.946706 2 3 cbr 1000 ------- 2 1.0 3.1 101 101
+ 0.948 1 2 cbr 1000 ------- 2 1.0 3.1 106 106
- 0.948 1 2 cbr 1000 ------- 2 1.0 3.1 106 106
r 0.954 1 2 cbr 1000 ------- 2 1.0 3.1 105 105
+ 0.954 2 3 cbr 1000 ------- 2 1.0 3.1 105 105
- 0.954 2 3 cbr 1000 ------- 2 1.0 3.1 105 105
r 0.954706 2 3 cbr 1000 ------- 2 1.0 3.1 102 102
+ 0.956 1 2 cbr 1000 ------- 2 1.0 3.1 107 107
- 0.956 1 2 cbr 1000 ------- 2 1.0 3.1 107 107
r 0.962 1 2 cbr 1000 ------- 2 1.0 3.1 106 106
+ 0.962 2 3 cbr 1000 ------- 2 1.0 3.1 106 106
- 0.962 2 3 cbr 1000 ------- 2 1.0 3.1 106 106
r 0.962706 2 3 cbr 1000 ------- 2 1.0 3.1 103 103
+ 0.964 1 2 cbr 1000 ------- 2 1.0 3.1 108 108
- 0.964 1 2 cbr 1000 ------- 2 1.0 3.1 108 108
r 0.97 1 2 cbr 1000 ------- 2 1.0 3.1 107 107
+ 0.97 2 3 cbr 1000 ------- 2 1.0 3.1 107 107
- 0.97 2 3 cbr 1000 ------- 2 1.0 3.1 107 107
r 0.970706 2 3 cbr 1000 ------- 2 1.0 3.1 104 104
+ 0.972 1 2 cbr 1000 ------- 2 1.0 3.1 109 109
- 0.972 1 2 cbr 1000 ------- 2 1.0 3.1 109 109
r 0.978 1 2 cbr 1000 ------- 2 1.0 3.1 108 108
+ 0.978 2 3 cbr 1000 ------- 2 1.0 3.1 108 108
- 0.978 2 3 cbr 1000 ------- 2 1.0 3.1 108 108
r 0.978706 2 3 cbr 1000 ------- 2 1.0 3.1 105 105
+ 0.98 1 2 cbr 1000 ------- 2 1.0 3.1 110 110
- 0.98 1 2 cbr 1000 ------- 2 1.0 3.1 110 110
r 0.986 1 2 cbr 1000 ------- 2 1.0 3.1 109 109
+ 0.986 2 3 cbr 1000 ------- 2 1.0 3.1 109 109
- 0.986 2 3 cbr 1000 ------- 2 1.0 3.1 109 109
r 0.986706 2 3 cbr 1000 ------- 2 1.0 3.1 106 106
+ 0.988 1 2 cbr 1000 ------- 2 1.0 3.1 111 111
- 0.988 1 2 cbr 1000 ------- 2 1.0 3.1 111 111
r 0.994 1 2 cbr 1000 ------- 2 1.0 3.1 110 110